<?xml version="1.0"?>
<VTKFile type="ImageData" version="0.1" byte_order="LittleEndian" compressor="vtkZLibDataCompressor">
  <RD format_version="4">
    <description>
      The &lt;a href=&quot;http://en.wikipedia.org/wiki/Schr%C3%B6dinger_equation&quot;&gt;Schrödinger equation&lt;/a&gt; describes the change in the 
      wave function for some quantum state. For a travelling particle, the magnitude of the wave packet describes the probability that the particle 
      will be found at each location.
      
      Here a wave packet travels through empty space until it reaches a high energy barrier, which it is reflected from.
      
      In our implementation, &apos;a&apos; represents the real part of the complex number and &apos;b&apos; the imaginary part. A fixed energy background is given by &apos;c&apos;.
      The magnitude is shown in &apos;d&apos; but doesn&apos;t affect the system.
      
      By changing the values of parameter &apos;potential&apos; and then using &apos;Generate Initial Pattern&apos; from the &apos;Action&apos; menu you can change the height
      of the barrier. Or you can paint directly into &apos;c&apos;.
      
    </description>
    <rule name="Schrodinger equation" type="kernel" neighborhood_type="vertex" neighborhood_range="1" neighborhood_weight="laplacian">
      <kernel number_of_chemicals="6" block_size_x="4" block_size_y="1" block_size_z="1">
        __kernel void rd_compute(__global float4 *a_in,__global float4 *b_in,__global float4 *c_in,__global float4 *d_in,__global float4 *e_in,__global float4 *f_in,__global float4 *a_out,__global float4 *b_out,__global float4 *c_out,__global float4 *d_out,__global float4 *e_out,__global float4 *f_out)
        {
            const int index_x = get_global_id(0);
            const int index_y = get_global_id(1);
            const int index_z = get_global_id(2);
            const int X = get_global_size(0);
            const int Y = get_global_size(1);
            const int Z = get_global_size(2);
            const int index_here = X*(Y*index_z + index_y) + index_x;
        
            float4 a = a_in[index_here];
            float4 b = b_in[index_here];
            float4 c = c_in[index_here];
            float4 d = d_in[index_here];
            float4 e = e_in[index_here];
            float4 f = f_in[index_here];
        
            // compute the Laplacians of each chemical
            // 2D standard 9-point stencil: [ 1,4,1; 4,-20,4; 1,4,1 ] / 6
            const int xm1 = (index_x-1+X) &amp; (X-1); // wrap (assumes X is a power of 2)
            const int xp1 = (index_x+1) &amp; (X-1);
            const int ym1 = (index_y-1+Y) &amp; (Y-1);
            const int yp1 = (index_y+1) &amp; (Y-1);
            const int index_n =  X*(Y*index_z + ym1) + index_x;
            const int index_ne = X*(Y*index_z + ym1) + xp1;
            const int index_e =  X*(Y*index_z + index_y) + xp1;
            const int index_se = X*(Y*index_z + yp1) + xp1;
            const int index_s =  X*(Y*index_z + yp1) + index_x;
            const int index_sw = X*(Y*index_z + yp1) + xm1;
            const int index_w =  X*(Y*index_z + index_y) + xm1;
            const int index_nw = X*(Y*index_z + ym1) + xm1;
            float4 a_n = a_in[index_n];
            float4 a_ne = a_in[index_ne];
            float4 a_e = a_in[index_e];
            float4 a_se = a_in[index_se];
            float4 a_s = a_in[index_s];
            float4 a_sw = a_in[index_sw];
            float4 a_w = a_in[index_w];
            float4 a_nw = a_in[index_nw];

            float4 b_n = b_in[index_n];
            float4 b_ne = b_in[index_ne];
            float4 b_e = b_in[index_e];
            float4 b_se = b_in[index_se];
            float4 b_s = b_in[index_s];
            float4 b_sw = b_in[index_sw];
            float4 b_w = b_in[index_w];
            float4 b_nw = b_in[index_nw];
            float4 c_n = c_in[index_n];
            float4 c_ne = c_in[index_ne];
            float4 c_e = c_in[index_e];
            float4 c_se = c_in[index_se];
            float4 c_s = c_in[index_s];
            float4 c_sw = c_in[index_sw];
            float4 c_w = c_in[index_w];
            float4 c_nw = c_in[index_nw];
            float4 d_n = d_in[index_n];
            float4 d_ne = d_in[index_ne];
            float4 d_e = d_in[index_e];
            float4 d_se = d_in[index_se];
            float4 d_s = d_in[index_s];
            float4 d_sw = d_in[index_sw];
            float4 d_w = d_in[index_w];
            float4 d_nw = d_in[index_nw];
            float4 e_n = e_in[index_n];
            float4 e_ne = e_in[index_ne];
            float4 e_e = e_in[index_e];
            float4 e_se = e_in[index_se];
            float4 e_s = e_in[index_s];
            float4 e_sw = e_in[index_sw];
            float4 e_w = e_in[index_w];
            float4 e_nw = e_in[index_nw];
            float4 f_n = f_in[index_n];
            float4 f_ne = f_in[index_ne];
            float4 f_e = f_in[index_e];
            float4 f_se = f_in[index_se];
            float4 f_s = f_in[index_s];
            float4 f_sw = f_in[index_sw];
            float4 f_w = f_in[index_w];
            float4 f_nw = f_in[index_nw];
            const float4 _K0 = -20.0f/6.0f; // center weight
            const float _K1 = 4.0f/6.0f; // edge-neighbors
            const float _K2 = 1.0f/6.0f; // vertex-neighbors
            
            float4 laplacian_a = (float4)(a_n.x*_K1 + a_n.y*_K2 + a.y*_K1 + a_s.y*_K2 + a_s.x*_K1 + a_sw.w*_K2 + a_w.w*_K1 + a_nw.w*_K2,
            a_n.y*_K1 + a_n.z*_K2 + a.z*_K1 + a_s.z*_K2 + a_s.y*_K1 + a_s.x*_K2 + a.x*_K1 + a_n.x*_K2,
            a_n.z*_K1 + a_n.w*_K2 + a.w*_K1 + a_s.w*_K2 + a_s.z*_K1 + a_s.y*_K2 + a.y*_K1 + a_n.y*_K2,
            a_n.w*_K1 + a_ne.x*_K2 + a_e.x*_K1 + a_se.x*_K2 + a_s.w*_K1 + a_s.z*_K2 + a.z*_K1 + a_n.z*_K2 ) + a*_K0;
            float4 laplacian_b = (float4)(b_n.x*_K1 + b_n.y*_K2 + b.y*_K1 + b_s.y*_K2 + b_s.x*_K1 + b_sw.w*_K2 + b_w.w*_K1 + b_nw.w*_K2,
            b_n.y*_K1 + b_n.z*_K2 + b.z*_K1 + b_s.z*_K2 + b_s.y*_K1 + b_s.x*_K2 + b.x*_K1 + b_n.x*_K2,
            b_n.z*_K1 + b_n.w*_K2 + b.w*_K1 + b_s.w*_K2 + b_s.z*_K1 + b_s.y*_K2 + b.y*_K1 + b_n.y*_K2,
            b_n.w*_K1 + b_ne.x*_K2 + b_e.x*_K1 + b_se.x*_K2 + b_s.w*_K1 + b_s.z*_K2 + b.z*_K1 + b_n.z*_K2 ) + b*_K0;
            float4 laplacian_c = (float4)(c_n.x*_K1 + c_n.y*_K2 + c.y*_K1 + c_s.y*_K2 + c_s.x*_K1 + c_sw.w*_K2 + c_w.w*_K1 + c_nw.w*_K2,
            c_n.y*_K1 + c_n.z*_K2 + c.z*_K1 + c_s.z*_K2 + c_s.y*_K1 + c_s.x*_K2 + c.x*_K1 + c_n.x*_K2,
            c_n.z*_K1 + c_n.w*_K2 + c.w*_K1 + c_s.w*_K2 + c_s.z*_K1 + c_s.y*_K2 + c.y*_K1 + c_n.y*_K2,
            c_n.w*_K1 + c_ne.x*_K2 + c_e.x*_K1 + c_se.x*_K2 + c_s.w*_K1 + c_s.z*_K2 + c.z*_K1 + c_n.z*_K2 ) + c*_K0;
            float4 laplacian_d = (float4)(d_n.x*_K1 + d_n.y*_K2 + d.y*_K1 + d_s.y*_K2 + d_s.x*_K1 + d_sw.w*_K2 + d_w.w*_K1 + d_nw.w*_K2,
            d_n.y*_K1 + d_n.z*_K2 + d.z*_K1 + d_s.z*_K2 + d_s.y*_K1 + d_s.x*_K2 + d.x*_K1 + d_n.x*_K2,
            d_n.z*_K1 + d_n.w*_K2 + d.w*_K1 + d_s.w*_K2 + d_s.z*_K1 + d_s.y*_K2 + d.y*_K1 + d_n.y*_K2,
            d_n.w*_K1 + d_ne.x*_K2 + d_e.x*_K1 + d_se.x*_K2 + d_s.w*_K1 + d_s.z*_K2 + d.z*_K1 + d_n.z*_K2 ) + d*_K0;
            float4 laplacian_e = (float4)(e_n.x*_K1 + e_n.y*_K2 + e.y*_K1 + e_s.y*_K2 + e_s.x*_K1 + e_sw.w*_K2 + e_w.w*_K1 + e_nw.w*_K2,
            e_n.y*_K1 + e_n.z*_K2 + e.z*_K1 + e_s.z*_K2 + e_s.y*_K1 + e_s.x*_K2 + e.x*_K1 + e_n.x*_K2,
            e_n.z*_K1 + e_n.w*_K2 + e.w*_K1 + e_s.w*_K2 + e_s.z*_K1 + e_s.y*_K2 + e.y*_K1 + e_n.y*_K2,
            e_n.w*_K1 + e_ne.x*_K2 + e_e.x*_K1 + e_se.x*_K2 + e_s.w*_K1 + e_s.z*_K2 + e.z*_K1 + e_n.z*_K2 ) + e*_K0;
            float4 laplacian_f = (float4)(f_n.x*_K1 + f_n.y*_K2 + f.y*_K1 + f_s.y*_K2 + f_s.x*_K1 + f_sw.w*_K2 + f_w.w*_K1 + f_nw.w*_K2,
            f_n.y*_K1 + f_n.z*_K2 + f.z*_K1 + f_s.z*_K2 + f_s.y*_K1 + f_s.x*_K2 + f.x*_K1 + f_n.x*_K2,
            f_n.z*_K1 + f_n.w*_K2 + f.w*_K1 + f_s.w*_K2 + f_s.z*_K1 + f_s.y*_K2 + f.y*_K1 + f_n.y*_K2,
            f_n.w*_K1 + f_ne.x*_K2 + f_e.x*_K1 + f_se.x*_K2 + f_s.w*_K1 + f_s.z*_K2 + f.z*_K1 + f_n.z*_K2 ) + f*_K0;
            

            const float4 _Kd0 = 0.0f/6.0f; // center weight
            const float _Kd1 = 0.0f/6.0f; // edge-neighbors
            const float _Kd1P = 1.0f/1.0f; // edge-neighbors
            const float _Kd1N = -1.0f/1.0f; // edge-neighbors
            const float _Kd2 = 0.0f/1.0f; // vertex-neighbors
            float4 div_a = (float4)(a_n.x*_Kd1P + a_n.y*_Kd2 + a.y*_Kd1 + a_s.y*_Kd2 + a_s.x*_Kd1N + a_sw.w*_Kd2 + a_w.w*_Kd1 + a_nw.w*_Kd2,
            a_n.y*_Kd1P + a_n.z*_Kd2 + a.z*_Kd1 + a_s.z*_Kd2 + a_s.y*_Kd1N + a_s.x*_Kd2 + a.x*_Kd1N + a_n.x*_Kd2,
            a_n.z*_Kd1P + a_n.w*_Kd2 + a.w*_Kd1 + a_s.w*_Kd2 + a_s.z*_Kd1N + a_s.y*_Kd2 + a.y*_Kd1N + a_n.y*_Kd2,
            a_n.w*_Kd1P + a_ne.x*_Kd2 + a_e.x*_Kd1 + a_se.x*_Kd2 + a_s.w*_Kd1N + a_s.z*_Kd2 + a.z*_Kd1N + a_n.z*_Kd2 ) + a*_Kd0;

            float4 delta_a = 0.0f;
            float4 delta_b = 0.0f;
            float4 delta_c = 0.0f;
            float4 delta_d = 0.0f;
            float4 delta_e = 0.0f;
            float4 delta_f = 0.0f;
        
            float4 timestep = 0.001000f;
            float4 potential = -2.000000f;
            float4 damp = 0.002500f;
            float4 vis = 2.000000f;
            
            delta_a=div_a;
<!--             delta_a = (laplacian_b+damp*laplacian_a - c*b);
            delta_b = (-laplacian_a+damp*laplacian_b + c*a);
            d = hypot( a, b )*vis;
 -->            
            f=b*vis;
            
        
            a_out[index_here] = a + timestep * delta_a;
            b_out[index_here] = b + timestep * delta_b;
            c_out[index_here] = c + timestep * delta_c;
            d_out[index_here] = d + timestep * delta_d;
            e_out[index_here] = e + timestep * delta_e;
            f_out[index_here] = f + timestep * delta_f;
        }
        
      </kernel>
    </rule>
    <initial_pattern_generator apply_when_loading="false">
      <overlay chemical="d">
        <overwrite>
        </overwrite>
        <gaussian height="1" sigma="0.05">
          <point3D x="0.2" y="0.5" z="0.5">
          </point3D>
        </gaussian>
        <everywhere>
        </everywhere>
      </overlay>
      <overlay chemical="d">
        <overwrite>
        </overwrite>
        <white_noise low="-1" high="1">
        </white_noise>
        <everywhere>
        </everywhere>
      </overlay>

      <overlay chemical="a">
        <overwrite>
        </overwrite>
        <sine phase="0" amplitude="1">
          <point3D x="0" y="0" z="0">
          </point3D>
          <point3D x="0.05" y="0" z="0">
          </point3D>
        </sine>
        <everywhere>
        </everywhere>
      </overlay>
      <overlay chemical="a">
        <multiply>
        </multiply>
        <other_chemical chemical="d">
        </other_chemical>
        <everywhere>
        </everywhere>
      </overlay>
      <overlay chemical="a">
        <overwrite>
        </overwrite>
        <white_noise low="-1" high="1">
        </white_noise>
        <everywhere>
        </everywhere>
      </overlay>
      <overlay chemical="a">
        <multiply>
        </multiply>
        <other_chemical chemical="d">
        </other_chemical>
        <everywhere>
        </everywhere>
      </overlay>
      <overlay chemical="b">
        <overwrite>
        </overwrite>
        <sine phase="1.5708" amplitude="1">
          <point3D x="0" y="0" z="0">
          </point3D>
          <point3D x="0.05" y="0" z="0">
          </point3D>
        </sine>
        <everywhere>
        </everywhere>
      </overlay>
      <overlay chemical="b">
        <multiply>
        </multiply>
        <other_chemical chemical="d">
        </other_chemical>
        <everywhere>
        </everywhere>
      </overlay>
      <overlay chemical="c">
        <overwrite>
        </overwrite>
        <sine phase="1.5708" amplitude="1.5">
          <point3D x="0" y="0" z="0">
          </point3D>
          <point3D x="1" y="1" z="0">
          </point3D>
        </sine>
        <everywhere>
        </everywhere>
      </overlay>
      <overlay chemical="c">
        <overwrite>
        </overwrite>
        <gaussian height="-2" sigma="0.075">
          <point3D x="0.35" y="0.5" z="0.5">
          </point3D>
        </gaussian>
        <everywhere>
        </everywhere>
      </overlay>
      <overlay chemical="c">
        <add>
        </add>
        <gaussian height="-2" sigma="0.075">
          <point3D x="0.65" y="0.5" z="0.5">
          </point3D>
        </gaussian>
        <everywhere>
        </everywhere>
      </overlay>
      <overlay chemical="e">
        <overwrite>
        </overwrite>
        <radial_gradient val1="0" val2="1">
          <point3D x="0.5" y="0.5" z="0">
          </point3D>
          <point3D x="1" y="1" z="0">
          </point3D>
        </radial_gradient>
        <everywhere>
        </everywhere>
      </overlay>
      <overlay chemical="d">
        <overwrite>
        </overwrite>
        <gaussian height="1" sigma="0.05">
          <point3D x="0.35" y="0.5" z="0.5">
          </point3D>
        </gaussian>
        <everywhere>
        </everywhere>
      </overlay>
      <overlay chemical="a">
        <overwrite>
        </overwrite>
        <sine phase="0" amplitude="1">
          <point3D x="0" y="0" z="0">
          </point3D>
          <point3D x="0.05" y="0" z="0">
          </point3D>
        </sine>
        <everywhere>
        </everywhere>
      </overlay>
      <overlay chemical="a">
        <multiply>
        </multiply>
        <other_chemical chemical="d">
        </other_chemical>
        <everywhere>
        </everywhere>
      </overlay>
      <overlay chemical="b">
        <overwrite>
        </overwrite>
        <sine phase="1.5708" amplitude="1">
          <point3D x="0" y="0" z="0">
          </point3D>
          <point3D x="0.05" y="0" z="0">
          </point3D>
        </sine>
        <everywhere>
        </everywhere>
      </overlay>
      <overlay chemical="b">
        <multiply>
        </multiply>
        <other_chemical chemical="d">
        </other_chemical>
        <everywhere>
        </everywhere>
      </overlay>
      <overlay chemical="d">
        <add>
        </add>
        <other_chemical chemical="c">
        </other_chemical>
        <everywhere>
        </everywhere>
      </overlay>
    </initial_pattern_generator>
    <render_settings>
      <surface_color r="1" g="1" b="1">
      </surface_color>
      <color_low r="0" g="0" b="1">
      </color_low>
      <color_high r="1" g="0" b="0">
      </color_high>
      <show_color_scale value="true">
      </show_color_scale>
      <show_multiple_chemicals value="true">
      </show_multiple_chemicals>
      <active_chemical value="d">
      </active_chemical>
      <low value="-0.5">
      </low>
      <high value="0.5">
      </high>
      <vertical_scale_1D value="100">
      </vertical_scale_1D>
      <vertical_scale_2D value="50">
      </vertical_scale_2D>
      <contour_level value="0.25">
      </contour_level>
      <use_wireframe value="false">
      </use_wireframe>
      <show_cell_edges value="false">
      </show_cell_edges>
      <show_bounding_box value="true">
      </show_bounding_box>
      <slice_3D value="true">
      </slice_3D>
      <slice_3D_axis value="z">
      </slice_3D_axis>
      <slice_3D_position value="0.5">
      </slice_3D_position>
      <show_displacement_mapped_surface value="false">
      </show_displacement_mapped_surface>
      <color_displacement_mapped_surface value="false">
      </color_displacement_mapped_surface>
      <use_image_interpolation value="true">
      </use_image_interpolation>
      <timesteps_per_render value="1024">
      </timesteps_per_render>
      <show_phase_plot value="false">
      </show_phase_plot>
      <phase_plot_x_axis value="a">
      </phase_plot_x_axis>
      <phase_plot_y_axis value="b">
      </phase_plot_y_axis>
      <phase_plot_z_axis value="c">
      </phase_plot_z_axis>
    </render_settings>
  </RD>
  <ImageData WholeExtent="0 127 0 127 0 0" Origin="0 0 0" Spacing="1 1 1">
  <Piece Extent="0 127 0 127 0 0">
    <PointData>
      <DataArray type="Float32" Name="a" format="binary" RangeMin="-0.93987876177" RangeMax="0.90501493216">